+ 0 0 1 cbr 210 ------- 0 0.0 3.0 0 0
- 0 0 1 cbr 210 ------- 0 0.0 3.0 0 0
r 0.002336 0 1 cbr 210 ------- 0 0.0 3.0 0 0
+ 0.002336 1 4 cbr 210 ------- 0 0.0 3.0 0 0
- 0.002336 1 4 cbr 210 ------- 0 0.0 3.0 0 0
+ 0.00375 0 1 cbr 210 ------- 0 0.0 3.0 1 1
- 0.00375 0 1 cbr 210 ------- 0 0.0 3.0 1 1
r 0.006086 0 1 cbr 210 ------- 0 0.0 3.0 1 1
+ 0.006086 1 4 cbr 210 ------- 0 0.0 3.0 1 1
- 0.006086 1 4 cbr 210 ------- 0 0.0 3.0 1 1
+ 0.0075 0 1 cbr 210 ------- 0 0.0 3.0 2 2
- 0.0075 0 1 cbr 210 ------- 0 0.0 3.0 2 2
r 0.009836 0 1 cbr 210 ------- 0 0.0 3.0 2 2
+ 0.009836 1 4 cbr 210 ------- 0 0.0 3.0 2 2
- 0.009836 1 4 cbr 210 ------- 0 0.0 3.0 2 2
+ 0.01125 0 1 cbr 210 ------- 0 0.0 3.0 3 3
- 0.01125 0 1 cbr 210 ------- 0 0.0 3.0 3 3
r 0.012896 1 4 cbr 210 ------- 0 0.0 3.0 0 0
+ 0.012896 4 3 cbr 210 ------- 0 0.0 3.0 0 0
- 0.012896 4 3 cbr 210 ------- 0 0.0 3.0 0 0
r 0.013586 0 1 cbr 210 ------- 0 0.0 3.0 3 3
+ 0.013586 1 4 cbr 210 ------- 0 0.0 3.0 3 3
- 0.013586 1 4 cbr 210 ------- 0 0.0 3.0 3 3
r 0.014913 4 3 cbr 210 ------- 0 0.0 3.0 0 0
+ 0.015 0 1 cbr 210 ------- 0 0.0 3.0 4 4
- 0.015 0 1 cbr 210 ------- 0 0.0 3.0 4 4
r 0.016646 1 4 cbr 210 ------- 0 0.0 3.0 1 1
+ 0.016646 4 3 cbr 210 ------- 0 0.0 3.0 1 1
- 0.016646 4 3 cbr 210 ------- 0 0.0 3.0 1 1
r 0.017336 0 1 cbr 210 ------- 0 0.0 3.0 4 4
+ 0.017336 1 4 cbr 210 ------- 0 0.0 3.0 4 4
- 0.017336 1 4 cbr 210 ------- 0 0.0 3.0 4 4
r 0.018663 4 3 cbr 210 ------- 0 0.0 3.0 1 1
+ 0.01875 0 1 cbr 210 ------- 0 0.0 3.0 5 5
- 0.01875 0 1 cbr 210 ------- 0 0.0 3.0 5 5
r 0.020396 1 4 cbr 210 ------- 0 0.0 3.0 2 2
+ 0.020396 4 3 cbr 210 ------- 0 0.0 3.0 2 2
- 0.020396 4 3 cbr 210 ------- 0 0.0 3.0 2 2
r 0.021086 0 1 cbr 210 ------- 0 0.0 3.0 5 5
+ 0.021086 1 4 cbr 210 ------- 0 0.0 3.0 5 5
- 0.021086 1 4 cbr 210 ------- 0 0.0 3.0 5 5
r 0.022413 4 3 cbr 210 ------- 0 0.0 3.0 2 2
+ 0.0225 0 1 cbr 210 ------- 0 0.0 3.0 6 6
- 0.0225 0 1 cbr 210 ------- 0 0.0 3.0 6 6
r 0.024146 1 4 cbr 210 ------- 0 0.0 3.0 3 3
+ 0.024146 4 3 cbr 210 ------- 0 0.0 3.0 3 3
- 0.024146 4 3 cbr 210 ------- 0 0.0 3.0 3 3
r 0.024836 0 1 cbr 210 ------- 0 0.0 3.0 6 6
+ 0.024836 1 4 cbr 210 ------- 0 0.0 3.0 6 6
- 0.024836 1 4 cbr 210 ------- 0 0.0 3.0 6 6
r 0.026163 4 3 cbr 210 ------- 0 0.0 3.0 3 3
+ 0.02625 0 1 cbr 210 ------- 0 0.0 3.0 7 7
- 0.02625 0 1 cbr 210 ------- 0 0.0 3.0 7 7
r 0.027896 1 4 cbr 210 ------- 0 0.0 3.0 4 4
+ 0.027896 4 3 cbr 210 ------- 0 0.0 3.0 4 4
- 0.027896 4 3 cbr 210 ------- 0 0.0 3.0 4 4
r 0.028586 0 1 cbr 210 ------- 0 0.0 3.0 7 7
+ 0.028586 1 4 cbr 210 ------- 0 0.0 3.0 7 7
- 0.028586 1 4 cbr 210 ------- 0 0.0 3.0 7 7
r 0.029913 4 3 cbr 210 ------- 0 0.0 3.0 4 4
+ 0.03 0 1 cbr 210 ------- 0 0.0 3.0 8 8
- 0.03 0 1 cbr 210 ------- 0 0.0 3.0 8 8
r 0.031646 1 4 cbr 210 ------- 0 0.0 3.0 5 5
+ 0.031646 4 3 cbr 210 ------- 0 0.0 3.0 5 5
- 0.031646 4 3 cbr 210 ------- 0 0.0 3.0 5 5
r 0.032336 0 1 cbr 210 ------- 0 0.0 3.0 8 8
+ 0.032336 1 4 cbr 210 ------- 0 0.0 3.0 8 8
- 0.032336 1 4 cbr 210 ------- 0 0.0 3.0 8 8
r 0.033663 4 3 cbr 210 ------- 0 0.0 3.0 5 5
+ 0.03375 0 1 cbr 210 ------- 0 0.0 3.0 9 9
- 0.03375 0 1 cbr 210 ------- 0 0.0 3.0 9 9
r 0.035396 1 4 cbr 210 ------- 0 0.0 3.0 6 6
+ 0.035396 4 3 cbr 210 ------- 0 0.0 3.0 6 6
- 0.035396 4 3 cbr 210 ------- 0 0.0 3.0 6 6
r 0.036086 0 1 cbr 210 ------- 0 0.0 3.0 9 9
+ 0.036086 1 4 cbr 210 ------- 0 0.0 3.0 9 9
- 0.036086 1 4 cbr 210 ------- 0 0.0 3.0 9 9
r 0.037413 4 3 cbr 210 ------- 0 0.0 3.0 6 6
+ 0.0375 0 1 cbr 210 ------- 0 0.0 3.0 10 10
- 0.0375 0 1 cbr 210 ------- 0 0.0 3.0 10 10
r 0.039146 1 4 cbr 210 ------- 0 0.0 3.0 7 7
+ 0.039146 4 3 cbr 210 ------- 0 0.0 3.0 7 7
- 0.039146 4 3 cbr 210 ------- 0 0.0 3.0 7 7
r 0.039836 0 1 cbr 210 ------- 0 0.0 3.0 10 10
+ 0.039836 1 4 cbr 210 ------- 0 0.0 3.0 10 10
- 0.039836 1 4 cbr 210 ------- 0 0.0 3.0 10 10
r 0.041163 4 3 cbr 210 ------- 0 0.0 3.0 7 7
+ 0.04125 0 1 cbr 210 ------- 0 0.0 3.0 11 11
- 0.04125 0 1 cbr 210 ------- 0 0.0 3.0 11 11
r 0.042896 1 4 cbr 210 ------- 0 0.0 3.0 8 8
+ 0.042896 4 3 cbr 210 ------- 0 0.0 3.0 8 8
- 0.042896 4 3 cbr 210 ------- 0 0.0 3.0 8 8
r 0.043586 0 1 cbr 210 ------- 0 0.0 3.0 11 11
+ 0.043586 1 4 cbr 210 ------- 0 0.0 3.0 11 11
- 0.043586 1 4 cbr 210 ------- 0 0.0 3.0 11 11
r 0.044913 4 3 cbr 210 ------- 0 0.0 3.0 8 8
+ 0.045 0 1 cbr 210 ------- 0 0.0 3.0 12 12
- 0.045 0 1 cbr 210 ------- 0 0.0 3.0 12 12
r 0.046646 1 4 cbr 210 ------- 0 0.0 3.0 9 9
+ 0.046646 4 3 cbr 210 ------- 0 0.0 3.0 9 9
- 0.046646 4 3 cbr 210 ------- 0 0.0 3.0 9 9
r 0.047336 0 1 cbr 210 ------- 0 0.0 3.0 12 12
+ 0.047336 1 4 cbr 210 ------- 0 0.0 3.0 12 12
- 0.047336 1 4 cbr 210 ------- 0 0.0 3.0 12 12
r 0.048663 4 3 cbr 210 ------- 0 0.0 3.0 9 9
+ 0.04875 0 1 cbr 210 ------- 0 0.0 3.0 13 13
- 0.04875 0 1 cbr 210 ------- 0 0.0 3.0 13 13
r 0.050396 1 4 cbr 210 ------- 0 0.0 3.0 10 10
+ 0.050396 4 3 cbr 210 ------- 0 0.0 3.0 10 10
- 0.050396 4 3 cbr 210 ------- 0 0.0 3.0 10 10
r 0.051086 0 1 cbr 210 ------- 0 0.0 3.0 13 13
+ 0.051086 1 4 cbr 210 ------- 0 0.0 3.0 13 13
- 0.051086 1 4 cbr 210 ------- 0 0.0 3.0 13 13
r 0.052413 4 3 cbr 210 ------- 0 0.0 3.0 10 10
+ 0.0525 0 1 cbr 210 ------- 0 0.0 3.0 14 14
- 0.0525 0 1 cbr 210 ------- 0 0.0 3.0 14 14
r 0.054146 1 4 cbr 210 ------- 0 0.0 3.0 11 11
+ 0.054146 4 3 cbr 210 ------- 0 0.0 3.0 11 11
- 0.054146 4 3 cbr 210 ------- 0 0.0 3.0 11 11
r 0.054836 0 1 cbr 210 ------- 0 0.0 3.0 14 14
+ 0.054836 1 4 cbr 210 ------- 0 0.0 3.0 14 14
- 0.054836 1 4 cbr 210 ------- 0 0.0 3.0 14 14
r 0.056163 4 3 cbr 210 ------- 0 0.0 3.0 11 11
+ 0.05625 0 1 cbr 210 ------- 0 0.0 3.0 15 15
- 0.05625 0 1 cbr 210 ------- 0 0.0 3.0 15 15
r 0.057896 1 4 cbr 210 ------- 0 0.0 3.0 12 12
+ 0.057896 4 3 cbr 210 ------- 0 0.0 3.0 12 12
- 0.057896 4 3 cbr 210 ------- 0 0.0 3.0 12 12
r 0.058586 0 1 cbr 210 ------- 0 0.0 3.0 15 15
+ 0.058586 1 4 cbr 210 ------- 0 0.0 3.0 15 15
- 0.058586 1 4 cbr 210 ------- 0 0.0 3.0 15 15
r 0.059913 4 3 cbr 210 ------- 0 0.0 3.0 12 12
+ 0.06 0 1 cbr 210 ------- 0 0.0 3.0 16 16
- 0.06 0 1 cbr 210 ------- 0 0.0 3.0 16 16
r 0.061646 1 4 cbr 210 ------- 0 0.0 3.0 13 13
+ 0.061646 4 3 cbr 210 ------- 0 0.0 3.0 13 13
- 0.061646 4 3 cbr 210 ------- 0 0.0 3.0 13 13
r 0.062336 0 1 cbr 210 ------- 0 0.0 3.0 16 16
+ 0.062336 1 4 cbr 210 ------- 0 0.0 3.0 16 16
- 0.062336 1 4 cbr 210 ------- 0 0.0 3.0 16 16
r 0.063663 4 3 cbr 210 ------- 0 0.0 3.0 13 13
+ 0.06375 0 1 cbr 210 ------- 0 0.0 3.0 17 17
- 0.06375 0 1 cbr 210 ------- 0 0.0 3.0 17 17
r 0.065396 1 4 cbr 210 ------- 0 0.0 3.0 14 14
+ 0.065396 4 3 cbr 210 ------- 0 0.0 3.0 14 14
- 0.065396 4 3 cbr 210 ------- 0 0.0 3.0 14 14
r 0.066086 0 1 cbr 210 ------- 0 0.0 3.0 17 17
+ 0.066086 1 4 cbr 210 ------- 0 0.0 3.0 17 17
- 0.066086 1 4 cbr 210 ------- 0 0.0 3.0 17 17
r 0.067413 4 3 cbr 210 ------- 0 0.0 3.0 14 14
+ 0.0675 0 1 cbr 210 ------- 0 0.0 3.0 18 18
- 0.0675 0 1 cbr 210 ------- 0 0.0 3.0 18 18
r 0.069146 1 4 cbr 210 ------- 0 0.0 3.0 15 15
+ 0.069146 4 3 cbr 210 ------- 0 0.0 3.0 15 15
- 0.069146 4 3 cbr 210 ------- 0 0.0 3.0 15 15
r 0.069836 0 1 cbr 210 ------- 0 0.0 3.0 18 18
+ 0.069836 1 4 cbr 210 ------- 0 0.0 3.0 18 18
- 0.069836 1 4 cbr 210 ------- 0 0.0 3.0 18 18
r 0.071163 4 3 cbr 210 ------- 0 0.0 3.0 15 15
+ 0.07125 0 1 cbr 210 ------- 0 0.0 3.0 19 19
- 0.07125 0 1 cbr 210 ------- 0 0.0 3.0 19 19
r 0.072896 1 4 cbr 210 ------- 0 0.0 3.0 16 16
+ 0.072896 4 3 cbr 210 ------- 0 0.0 3.0 16 16
- 0.072896 4 3 cbr 210 ------- 0 0.0 3.0 16 16
r 0.073586 0 1 cbr 210 ------- 0 0.0 3.0 19 19
+ 0.073586 1 4 cbr 210 ------- 0 0.0 3.0 19 19
- 0.073586 1 4 cbr 210 ------- 0 0.0 3.0 19 19
r 0.074913 4 3 cbr 210 ------- 0 0.0 3.0 16 16
+ 0.075 0 1 cbr 210 ------- 0 0.0 3.0 20 20
- 0.075 0 1 cbr 210 ------- 0 0.0 3.0 20 20
r 0.076646 1 4 cbr 210 ------- 0 0.0 3.0 17 17
+ 0.076646 4 3 cbr 210 ------- 0 0.0 3.0 17 17
- 0.076646 4 3 cbr 210 ------- 0 0.0 3.0 17 17
r 0.077336 0 1 cbr 210 ------- 0 0.0 3.0 20 20
+ 0.077336 1 4 cbr 210 ------- 0 0.0 3.0 20 20
- 0.077336 1 4 cbr 210 ------- 0 0.0 3.0 20 20
r 0.078663 4 3 cbr 210 ------- 0 0.0 3.0 17 17
+ 0.07875 0 1 cbr 210 ------- 0 0.0 3.0 21 21
- 0.07875 0 1 cbr 210 ------- 0 0.0 3.0 21 21
r 0.080396 1 4 cbr 210 ------- 0 0.0 3.0 18 18
+ 0.080396 4 3 cbr 210 ------- 0 0.0 3.0 18 18
- 0.080396 4 3 cbr 210 ------- 0 0.0 3.0 18 18
r 0.081086 0 1 cbr 210 ------- 0 0.0 3.0 21 21
+ 0.081086 1 4 cbr 210 ------- 0 0.0 3.0 21 21
- 0.081086 1 4 cbr 210 ------- 0 0.0 3.0 21 21
r 0.082413 4 3 cbr 210 ------- 0 0.0 3.0 18 18
+ 0.0825 0 1 cbr 210 ------- 0 0.0 3.0 22 22
- 0.0825 0 1 cbr 210 ------- 0 0.0 3.0 22 22
r 0.084146 1 4 cbr 210 ------- 0 0.0 3.0 19 19
+ 0.084146 4 3 cbr 210 ------- 0 0.0 3.0 19 19
- 0.084146 4 3 cbr 210 ------- 0 0.0 3.0 19 19
r 0.084836 0 1 cbr 210 ------- 0 0.0 3.0 22 22
+ 0.084836 1 4 cbr 210 ------- 0 0.0 3.0 22 22
- 0.084836 1 4 cbr 210 ------- 0 0.0 3.0 22 22
r 0.086163 4 3 cbr 210 ------- 0 0.0 3.0 19 19
+ 0.08625 0 1 cbr 210 ------- 0 0.0 3.0 23 23
- 0.08625 0 1 cbr 210 ------- 0 0.0 3.0 23 23
r 0.087896 1 4 cbr 210 ------- 0 0.0 3.0 20 20
+ 0.087896 4 3 cbr 210 ------- 0 0.0 3.0 20 20
- 0.087896 4 3 cbr 210 ------- 0 0.0 3.0 20 20
r 0.088586 0 1 cbr 210 ------- 0 0.0 3.0 23 23
+ 0.088586 1 4 cbr 210 ------- 0 0.0 3.0 23 23
- 0.088586 1 4 cbr 210 ------- 0 0.0 3.0 23 23
r 0.089913 4 3 cbr 210 ------- 0 0.0 3.0 20 20
+ 0.09 0 1 cbr 210 ------- 0 0.0 3.0 24 24
- 0.09 0 1 cbr 210 ------- 0 0.0 3.0 24 24
r 0.091646 1 4 cbr 210 ------- 0 0.0 3.0 21 21
+ 0.091646 4 3 cbr 210 ------- 0 0.0 3.0 21 21
- 0.091646 4 3 cbr 210 ------- 0 0.0 3.0 21 21
r 0.092336 0 1 cbr 210 ------- 0 0.0 3.0 24 24
+ 0.092336 1 4 cbr 210 ------- 0 0.0 3.0 24 24
- 0.092336 1 4 cbr 210 ------- 0 0.0 3.0 24 24
r 0.093663 4 3 cbr 210 ------- 0 0.0 3.0 21 21
+ 0.09375 0 1 cbr 210 ------- 0 0.0 3.0 25 25
- 0.09375 0 1 cbr 210 ------- 0 0.0 3.0 25 25
r 0.095396 1 4 cbr 210 ------- 0 0.0 3.0 22 22
+ 0.095396 4 3 cbr 210 ------- 0 0.0 3.0 22 22
- 0.095396 4 3 cbr 210 ------- 0 0.0 3.0 22 22
r 0.096086 0 1 cbr 210 ------- 0 0.0 3.0 25 25
+ 0.096086 1 4 cbr 210 ------- 0 0.0 3.0 25 25
- 0.096086 1 4 cbr 210 ------- 0 0.0 3.0 25 25
r 0.097413 4 3 cbr 210 ------- 0 0.0 3.0 22 22
+ 0.0975 0 1 cbr 210 ------- 0 0.0 3.0 26 26
- 0.0975 0 1 cbr 210 ------- 0 0.0 3.0 26 26
r 0.099146 1 4 cbr 210 ------- 0 0.0 3.0 23 23
+ 0.099146 4 3 cbr 210 ------- 0 0.0 3.0 23 23
- 0.099146 4 3 cbr 210 ------- 0 0.0 3.0 23 23
r 0.099836 0 1 cbr 210 ------- 0 0.0 3.0 26 26
+ 0.099836 1 4 cbr 210 ------- 0 0.0 3.0 26 26
- 0.099836 1 4 cbr 210 ------- 0 0.0 3.0 26 26
r 0.101163 4 3 cbr 210 ------- 0 0.0 3.0 23 23
+ 0.10125 0 1 cbr 210 ------- 0 0.0 3.0 27 27
- 0.10125 0 1 cbr 210 ------- 0 0.0 3.0 27 27
r 0.102896 1 4 cbr 210 ------- 0 0.0 3.0 24 24
+ 0.102896 4 3 cbr 210 ------- 0 0.0 3.0 24 24
- 0.102896 4 3 cbr 210 ------- 0 0.0 3.0 24 24
r 0.103586 0 1 cbr 210 ------- 0 0.0 3.0 27 27
+ 0.103586 1 4 cbr 210 ------- 0 0.0 3.0 27 27
- 0.103586 1 4 cbr 210 ------- 0 0.0 3.0 27 27
r 0.104913 4 3 cbr 210 ------- 0 0.0 3.0 24 24
+ 0.105 0 1 cbr 210 ------- 0 0.0 3.0 28 28
- 0.105 0 1 cbr 210 ------- 0 0.0 3.0 28 28
r 0.106646 1 4 cbr 210 ------- 0 0.0 3.0 25 25
+ 0.106646 4 3 cbr 210 ------- 0 0.0 3.0 25 25
- 0.106646 4 3 cbr 210 ------- 0 0.0 3.0 25 25
r 0.107336 0 1 cbr 210 ------- 0 0.0 3.0 28 28
+ 0.107336 1 4 cbr 210 ------- 0 0.0 3.0 28 28
- 0.107336 1 4 cbr 210 ------- 0 0.0 3.0 28 28
r 0.108663 4 3 cbr 210 ------- 0 0.0 3.0 25 25
+ 0.10875 0 1 cbr 210 ------- 0 0.0 3.0 29 29
- 0.10875 0 1 cbr 210 ------- 0 0.0 3.0 29 29
r 0.110396 1 4 cbr 210 ------- 0 0.0 3.0 26 26
+ 0.110396 4 3 cbr 210 ------- 0 0.0 3.0 26 26
- 0.110396 4 3 cbr 210 ------- 0 0.0 3.0 26 26
r 0.111086 0 1 cbr 210 ------- 0 0.0 3.0 29 29
+ 0.111086 1 4 cbr 210 ------- 0 0.0 3.0 29 29
- 0.111086 1 4 cbr 210 ------- 0 0.0 3.0 29 29
r 0.112413 4 3 cbr 210 ------- 0 0.0 3.0 26 26
+ 0.1125 0 1 cbr 210 ------- 0 0.0 3.0 30 30
- 0.1125 0 1 cbr 210 ------- 0 0.0 3.0 30 30
r 0.114146 1 4 cbr 210 ------- 0 0.0 3.0 27 27
+ 0.114146 4 3 cbr 210 ------- 0 0.0 3.0 27 27
- 0.114146 4 3 cbr 210 ------- 0 0.0 3.0 27 27
r 0.114836 0 1 cbr 210 ------- 0 0.0 3.0 30 30
+ 0.114836 1 4 cbr 210 ------- 0 0.0 3.0 30 30
- 0.114836 1 4 cbr 210 ------- 0 0.0 3.0 30 30
r 0.116163 4 3 cbr 210 ------- 0 0.0 3.0 27 27
+ 0.11625 0 1 cbr 210 ------- 0 0.0 3.0 31 31
- 0.11625 0 1 cbr 210 ------- 0 0.0 3.0 31 31
r 0.117896 1 4 cbr 210 ------- 0 0.0 3.0 28 28
+ 0.117896 4 3 cbr 210 ------- 0 0.0 3.0 28 28
- 0.117896 4 3 cbr 210 ------- 0 0.0 3.0 28 28
r 0.118586 0 1 cbr 210 ------- 0 0.0 3.0 31 31
+ 0.118586 1 4 cbr 210 ------- 0 0.0 3.0 31 31
- 0.118586 1 4 cbr 210 ------- 0 0.0 3.0 31 31
r 0.119913 4 3 cbr 210 ------- 0 0.0 3.0 28 28
+ 0.12 0 1 cbr 210 ------- 0 0.0 3.0 32 32
- 0.12 0 1 cbr 210 ------- 0 0.0 3.0 32 32
r 0.121646 1 4 cbr 210 ------- 0 0.0 3.0 29 29
+ 0.121646 4 3 cbr 210 ------- 0 0.0 3.0 29 29
- 0.121646 4 3 cbr 210 ------- 0 0.0 3.0 29 29
r 0.122336 0 1 cbr 210 ------- 0 0.0 3.0 32 32
+ 0.122336 1 4 cbr 210 ------- 0 0.0 3.0 32 32
- 0.122336 1 4 cbr 210 ------- 0 0.0 3.0 32 32
r 0.123663 4 3 cbr 210 ------- 0 0.0 3.0 29 29
+ 0.12375 0 1 cbr 210 ------- 0 0.0 3.0 33 33
- 0.12375 0 1 cbr 210 ------- 0 0.0 3.0 33 33
r 0.125396 1 4 cbr 210 ------- 0 0.0 3.0 30 30
+ 0.125396 4 3 cbr 210 ------- 0 0.0 3.0 30 30
- 0.125396 4 3 cbr 210 ------- 0 0.0 3.0 30 30
r 0.126086 0 1 cbr 210 ------- 0 0.0 3.0 33 33
+ 0.126086 1 4 cbr 210 ------- 0 0.0 3.0 33 33
- 0.126086 1 4 cbr 210 ------- 0 0.0 3.0 33 33
r 0.127413 4 3 cbr 210 ------- 0 0.0 3.0 30 30
+ 0.1275 0 1 cbr 210 ------- 0 0.0 3.0 34 34
- 0.1275 0 1 cbr 210 ------- 0 0.0 3.0 34 34
r 0.129146 1 4 cbr 210 ------- 0 0.0 3.0 31 31
+ 0.129146 4 3 cbr 210 ------- 0 0.0 3.0 31 31
- 0.129146 4 3 cbr 210 ------- 0 0.0 3.0 31 31
r 0.129836 0 1 cbr 210 ------- 0 0.0 3.0 34 34
+ 0.129836 1 4 cbr 210 ------- 0 0.0 3.0 34 34
- 0.129836 1 4 cbr 210 ------- 0 0.0 3.0 34 34
r 0.131163 4 3 cbr 210 ------- 0 0.0 3.0 31 31
+ 0.13125 0 1 cbr 210 ------- 0 0.0 3.0 35 35
- 0.13125 0 1 cbr 210 ------- 0 0.0 3.0 35 35
r 0.132896 1 4 cbr 210 ------- 0 0.0 3.0 32 32
+ 0.132896 4 3 cbr 210 ------- 0 0.0 3.0 32 32
- 0.132896 4 3 cbr 210 ------- 0 0.0 3.0 32 32
r 0.133586 0 1 cbr 210 ------- 0 0.0 3.0 35 35
+ 0.133586 1 4 cbr 210 ------- 0 0.0 3.0 35 35
- 0.133586 1 4 cbr 210 ------- 0 0.0 3.0 35 35
r 0.134913 4 3 cbr 210 ------- 0 0.0 3.0 32 32
+ 0.135 0 1 cbr 210 ------- 0 0.0 3.0 36 36
- 0.135 0 1 cbr 210 ------- 0 0.0 3.0 36 36
r 0.136646 1 4 cbr 210 ------- 0 0.0 3.0 33 33
+ 0.136646 4 3 cbr 210 ------- 0 0.0 3.0 33 33
- 0.136646 4 3 cbr 210 ------- 0 0.0 3.0 33 33
r 0.137336 0 1 cbr 210 ------- 0 0.0 3.0 36 36
+ 0.137336 1 4 cbr 210 ------- 0 0.0 3.0 36 36
- 0.137336 1 4 cbr 210 ------- 0 0.0 3.0 36 36
r 0.138663 4 3 cbr 210 ------- 0 0.0 3.0 33 33
+ 0.13875 0 1 cbr 210 ------- 0 0.0 3.0 37 37
- 0.13875 0 1 cbr 210 ------- 0 0.0 3.0 37 37
r 0.140396 1 4 cbr 210 ------- 0 0.0 3.0 34 34
+ 0.140396 4 3 cbr 210 ------- 0 0.0 3.0 34 34
- 0.140396 4 3 cbr 210 ------- 0 0.0 3.0 34 34
r 0.141086 0 1 cbr 210 ------- 0 0.0 3.0 37 37
+ 0.141086 1 4 cbr 210 ------- 0 0.0 3.0 37 37
- 0.141086 1 4 cbr 210 ------- 0 0.0 3.0 37 37
r 0.142413 4 3 cbr 210 ------- 0 0.0 3.0 34 34
+ 0.1425 0 1 cbr 210 ------- 0 0.0 3.0 38 38
- 0.1425 0 1 cbr 210 ------- 0 0.0 3.0 38 38
r 0.144146 1 4 cbr 210 ------- 0 0.0 3.0 35 35
+ 0.144146 4 3 cbr 210 ------- 0 0.0 3.0 35 35
- 0.144146 4 3 cbr 210 ------- 0 0.0 3.0 35 35
r 0.144836 0 1 cbr 210 ------- 0 0.0 3.0 38 38
+ 0.144836 1 4 cbr 210 ------- 0 0.0 3.0 38 38
- 0.144836 1 4 cbr 210 ------- 0 0.0 3.0 38 38
r 0.146163 4 3 cbr 210 ------- 0 0.0 3.0 35 35
+ 0.14625 0 1 cbr 210 ------- 0 0.0 3.0 39 39
- 0.14625 0 1 cbr 210 ------- 0 0.0 3.0 39 39
r 0.147896 1 4 cbr 210 ------- 0 0.0 3.0 36 36
+ 0.147896 4 3 cbr 210 ------- 0 0.0 3.0 36 36
- 0.147896 4 3 cbr 210 ------- 0 0.0 3.0 36 36
r 0.148586 0 1 cbr 210 ------- 0 0.0 3.0 39 39
+ 0.148586 1 4 cbr 210 ------- 0 0.0 3.0 39 39
- 0.148586 1 4 cbr 210 ------- 0 0.0 3.0 39 39
r 0.149913 4 3 cbr 210 ------- 0 0.0 3.0 36 36
+ 0.15 0 1 cbr 210 ------- 0 0.0 3.0 40 40
- 0.15 0 1 cbr 210 ------- 0 0.0 3.0 40 40
r 0.151646 1 4 cbr 210 ------- 0 0.0 3.0 37 37
+ 0.151646 4 3 cbr 210 ------- 0 0.0 3.0 37 37
- 0.151646 4 3 cbr 210 ------- 0 0.0 3.0 37 37
r 0.152336 0 1 cbr 210 ------- 0 0.0 3.0 40 40
+ 0.152336 1 4 cbr 210 ------- 0 0.0 3.0 40 40
- 0.152336 1 4 cbr 210 ------- 0 0.0 3.0 40 40
r 0.153663 4 3 cbr 210 ------- 0 0.0 3.0 37 37
+ 0.15375 0 1 cbr 210 ------- 0 0.0 3.0 41 41
- 0.15375 0 1 cbr 210 ------- 0 0.0 3.0 41 41
r 0.155396 1 4 cbr 210 ------- 0 0.0 3.0 38 38
+ 0.155396 4 3 cbr 210 ------- 0 0.0 3.0 38 38
- 0.155396 4 3 cbr 210 ------- 0 0.0 3.0 38 38
r 0.156086 0 1 cbr 210 ------- 0 0.0 3.0 41 41
+ 0.156086 1 4 cbr 210 ------- 0 0.0 3.0 41 41
- 0.156086 1 4 cbr 210 ------- 0 0.0 3.0 41 41
r 0.157413 4 3 cbr 210 ------- 0 0.0 3.0 38 38
+ 0.1575 0 1 cbr 210 ------- 0 0.0 3.0 42 42
- 0.1575 0 1 cbr 210 ------- 0 0.0 3.0 42 42
r 0.159146 1 4 cbr 210 ------- 0 0.0 3.0 39 39
+ 0.159146 4 3 cbr 210 ------- 0 0.0 3.0 39 39
- 0.159146 4 3 cbr 210 ------- 0 0.0 3.0 39 39
r 0.159836 0 1 cbr 210 ------- 0 0.0 3.0 42 42
+ 0.159836 1 4 cbr 210 ------- 0 0.0 3.0 42 42
- 0.159836 1 4 cbr 210 ------- 0 0.0 3.0 42 42
r 0.161163 4 3 cbr 210 ------- 0 0.0 3.0 39 39
+ 0.16125 0 1 cbr 210 ------- 0 0.0 3.0 43 43
- 0.16125 0 1 cbr 210 ------- 0 0.0 3.0 43 43
r 0.162896 1 4 cbr 210 ------- 0 0.0 3.0 40 40
+ 0.162896 4 3 cbr 210 ------- 0 0.0 3.0 40 40
- 0.162896 4 3 cbr 210 ------- 0 0.0 3.0 40 40
r 0.163586 0 1 cbr 210 ------- 0 0.0 3.0 43 43
+ 0.163586 1 4 cbr 210 ------- 0 0.0 3.0 43 43
- 0.163586 1 4 cbr 210 ------- 0 0.0 3.0 43 43
r 0.164913 4 3 cbr 210 ------- 0 0.0 3.0 40 40
+ 0.165 0 1 cbr 210 ------- 0 0.0 3.0 44 44
- 0.165 0 1 cbr 210 ------- 0 0.0 3.0 44 44
r 0.166646 1 4 cbr 210 ------- 0 0.0 3.0 41 41
+ 0.166646 4 3 cbr 210 ------- 0 0.0 3.0 41 41
- 0.166646 4 3 cbr 210 ------- 0 0.0 3.0 41 41
r 0.167336 0 1 cbr 210 ------- 0 0.0 3.0 44 44
+ 0.167336 1 4 cbr 210 ------- 0 0.0 3.0 44 44
- 0.167336 1 4 cbr 210 ------- 0 0.0 3.0 44 44
r 0.168663 4 3 cbr 210 ------- 0 0.0 3.0 41 41
+ 0.16875 0 1 cbr 210 ------- 0 0.0 3.0 45 45
- 0.16875 0 1 cbr 210 ------- 0 0.0 3.0 45 45
r 0.170396 1 4 cbr 210 ------- 0 0.0 3.0 42 42
+ 0.170396 4 3 cbr 210 ------- 0 0.0 3.0 42 42
- 0.170396 4 3 cbr 210 ------- 0 0.0 3.0 42 42
r 0.171086 0 1 cbr 210 ------- 0 0.0 3.0 45 45
+ 0.171086 1 4 cbr 210 ------- 0 0.0 3.0 45 45
- 0.171086 1 4 cbr 210 ------- 0 0.0 3.0 45 45
r 0.172413 4 3 cbr 210 ------- 0 0.0 3.0 42 42
+ 0.1725 0 1 cbr 210 ------- 0 0.0 3.0 46 46
- 0.1725 0 1 cbr 210 ------- 0 0.0 3.0 46 46
r 0.174146 1 4 cbr 210 ------- 0 0.0 3.0 43 43
+ 0.174146 4 3 cbr 210 ------- 0 0.0 3.0 43 43
- 0.174146 4 3 cbr 210 ------- 0 0.0 3.0 43 43
r 0.174836 0 1 cbr 210 ------- 0 0.0 3.0 46 46
+ 0.174836 1 4 cbr 210 ------- 0 0.0 3.0 46 46
- 0.174836 1 4 cbr 210 ------- 0 0.0 3.0 46 46
r 0.176163 4 3 cbr 210 ------- 0 0.0 3.0 43 43
+ 0.17625 0 1 cbr 210 ------- 0 0.0 3.0 47 47
- 0.17625 0 1 cbr 210 ------- 0 0.0 3.0 47 47
r 0.177896 1 4 cbr 210 ------- 0 0.0 3.0 44 44
+ 0.177896 4 3 cbr 210 ------- 0 0.0 3.0 44 44
- 0.177896 4 3 cbr 210 ------- 0 0.0 3.0 44 44
r 0.178586 0 1 cbr 210 ------- 0 0.0 3.0 47 47
+ 0.178586 1 4 cbr 210 ------- 0 0.0 3.0 47 47
- 0.178586 1 4 cbr 210 ------- 0 0.0 3.0 47 47
r 0.179913 4 3 cbr 210 ------- 0 0.0 3.0 44 44
+ 0.18 0 1 cbr 210 ------- 0 0.0 3.0 48 48
- 0.18 0 1 cbr 210 ------- 0 0.0 3.0 48 48
r 0.181646 1 4 cbr 210 ------- 0 0.0 3.0 45 45
+ 0.181646 4 3 cbr 210 ------- 0 0.0 3.0 45 45
- 0.181646 4 3 cbr 210 ------- 0 0.0 3.0 45 45
r 0.182336 0 1 cbr 210 ------- 0 0.0 3.0 48 48
+ 0.182336 1 4 cbr 210 ------- 0 0.0 3.0 48 48
- 0.182336 1 4 cbr 210 ------- 0 0.0 3.0 48 48
r 0.183663 4 3 cbr 210 ------- 0 0.0 3.0 45 45
+ 0.18375 0 1 cbr 210 ------- 0 0.0 3.0 49 49
- 0.18375 0 1 cbr 210 ------- 0 0.0 3.0 49 49
r 0.185396 1 4 cbr 210 ------- 0 0.0 3.0 46 46
+ 0.185396 4 3 cbr 210 ------- 0 0.0 3.0 46 46
- 0.185396 4 3 cbr 210 ------- 0 0.0 3.0 46 46
r 0.186086 0 1 cbr 210 ------- 0 0.0 3.0 49 49
+ 0.186086 1 4 cbr 210 ------- 0 0.0 3.0 49 49
- 0.186086 1 4 cbr 210 ------- 0 0.0 3.0 49 49
r 0.187413 4 3 cbr 210 ------- 0 0.0 3.0 46 46
+ 0.1875 0 1 cbr 210 ------- 0 0.0 3.0 50 50
- 0.1875 0 1 cbr 210 ------- 0 0.0 3.0 50 50
r 0.189146 1 4 cbr 210 ------- 0 0.0 3.0 47 47
+ 0.189146 4 3 cbr 210 ------- 0 0.0 3.0 47 47
- 0.189146 4 3 cbr 210 ------- 0 0.0 3.0 47 47
r 0.189836 0 1 cbr 210 ------- 0 0.0 3.0 50 50
+ 0.189836 1 4 cbr 210 ------- 0 0.0 3.0 50 50
- 0.189836 1 4 cbr 210 ------- 0 0.0 3.0 50 50
r 0.191163 4 3 cbr 210 ------- 0 0.0 3.0 47 47
+ 0.19125 0 1 cbr 210 ------- 0 0.0 3.0 51 51
- 0.19125 0 1 cbr 210 ------- 0 0.0 3.0 51 51
r 0.192896 1 4 cbr 210 ------- 0 0.0 3.0 48 48
+ 0.192896 4 3 cbr 210 ------- 0 0.0 3.0 48 48
- 0.192896 4 3 cbr 210 ------- 0 0.0 3.0 48 48
r 0.193586 0 1 cbr 210 ------- 0 0.0 3.0 51 51
+ 0.193586 1 4 cbr 210 ------- 0 0.0 3.0 51 51
- 0.193586 1 4 cbr 210 ------- 0 0.0 3.0 51 51
r 0.194913 4 3 cbr 210 ------- 0 0.0 3.0 48 48
+ 0.195 0 1 cbr 210 ------- 0 0.0 3.0 52 52
- 0.195 0 1 cbr 210 ------- 0 0.0 3.0 52 52
r 0.196646 1 4 cbr 210 ------- 0 0.0 3.0 49 49
+ 0.196646 4 3 cbr 210 ------- 0 0.0 3.0 49 49
- 0.196646 4 3 cbr 210 ------- 0 0.0 3.0 49 49
r 0.197336 0 1 cbr 210 ------- 0 0.0 3.0 52 52
+ 0.197336 1 4 cbr 210 ------- 0 0.0 3.0 52 52
- 0.197336 1 4 cbr 210 ------- 0 0.0 3.0 52 52
r 0.198663 4 3 cbr 210 ------- 0 0.0 3.0 49 49
+ 0.19875 0 1 cbr 210 ------- 0 0.0 3.0 53 53
- 0.19875 0 1 cbr 210 ------- 0 0.0 3.0 53 53
r 0.200396 1 4 cbr 210 ------- 0 0.0 3.0 50 50
+ 0.200396 4 3 cbr 210 ------- 0 0.0 3.0 50 50
- 0.200396 4 3 cbr 210 ------- 0 0.0 3.0 50 50
r 0.201086 0 1 cbr 210 ------- 0 0.0 3.0 53 53
+ 0.201086 1 4 cbr 210 ------- 0 0.0 3.0 53 53
- 0.201086 1 4 cbr 210 ------- 0 0.0 3.0 53 53
r 0.202413 4 3 cbr 210 ------- 0 0.0 3.0 50 50
+ 0.2025 0 1 cbr 210 ------- 0 0.0 3.0 54 54
- 0.2025 0 1 cbr 210 ------- 0 0.0 3.0 54 54
r 0.204146 1 4 cbr 210 ------- 0 0.0 3.0 51 51
+ 0.204146 4 3 cbr 210 ------- 0 0.0 3.0 51 51
- 0.204146 4 3 cbr 210 ------- 0 0.0 3.0 51 51
r 0.204836 0 1 cbr 210 ------- 0 0.0 3.0 54 54
+ 0.204836 1 4 cbr 210 ------- 0 0.0 3.0 54 54
- 0.204836 1 4 cbr 210 ------- 0 0.0 3.0 54 54
r 0.206163 4 3 cbr 210 ------- 0 0.0 3.0 51 51
+ 0.20625 0 1 cbr 210 ------- 0 0.0 3.0 55 55
- 0.20625 0 1 cbr 210 ------- 0 0.0 3.0 55 55
r 0.207896 1 4 cbr 210 ------- 0 0.0 3.0 52 52
+ 0.207896 4 3 cbr 210 ------- 0 0.0 3.0 52 52
- 0.207896 4 3 cbr 210 ------- 0 0.0 3.0 52 52
r 0.208586 0 1 cbr 210 ------- 0 0.0 3.0 55 55
+ 0.208586 1 4 cbr 210 ------- 0 0.0 3.0 55 55
- 0.208586 1 4 cbr 210 ------- 0 0.0 3.0 55 55
r 0.209913 4 3 cbr 210 ------- 0 0.0 3.0 52 52
+ 0.21 0 1 cbr 210 ------- 0 0.0 3.0 56 56
- 0.21 0 1 cbr 210 ------- 0 0.0 3.0 56 56
r 0.211646 1 4 cbr 210 ------- 0 0.0 3.0 53 53
+ 0.211646 4 3 cbr 210 ------- 0 0.0 3.0 53 53
- 0.211646 4 3 cbr 210 ------- 0 0.0 3.0 53 53
r 0.212336 0 1 cbr 210 ------- 0 0.0 3.0 56 56
+ 0.212336 1 4 cbr 210 ------- 0 0.0 3.0 56 56
- 0.212336 1 4 cbr 210 ------- 0 0.0 3.0 56 56
r 0.213663 4 3 cbr 210 ------- 0 0.0 3.0 53 53
+ 0.21375 0 1 cbr 210 ------- 0 0.0 3.0 57 57
- 0.21375 0 1 cbr 210 ------- 0 0.0 3.0 57 57
r 0.215396 1 4 cbr 210 ------- 0 0.0 3.0 54 54
+ 0.215396 4 3 cbr 210 ------- 0 0.0 3.0 54 54
- 0.215396 4 3 cbr 210 ------- 0 0.0 3.0 54 54
r 0.216086 0 1 cbr 210 ------- 0 0.0 3.0 57 57
+ 0.216086 1 4 cbr 210 ------- 0 0.0 3.0 57 57
- 0.216086 1 4 cbr 210 ------- 0 0.0 3.0 57 57
r 0.217413 4 3 cbr 210 ------- 0 0.0 3.0 54 54
+ 0.2175 0 1 cbr 210 ------- 0 0.0 3.0 58 58
- 0.2175 0 1 cbr 210 ------- 0 0.0 3.0 58 58
r 0.219146 1 4 cbr 210 ------- 0 0.0 3.0 55 55
+ 0.219146 4 3 cbr 210 ------- 0 0.0 3.0 55 55
- 0.219146 4 3 cbr 210 ------- 0 0.0 3.0 55 55
r 0.219836 0 1 cbr 210 ------- 0 0.0 3.0 58 58
+ 0.219836 1 4 cbr 210 ------- 0 0.0 3.0 58 58
- 0.219836 1 4 cbr 210 ------- 0 0.0 3.0 58 58
r 0.221163 4 3 cbr 210 ------- 0 0.0 3.0 55 55
+ 0.22125 0 1 cbr 210 ------- 0 0.0 3.0 59 59
- 0.22125 0 1 cbr 210 ------- 0 0.0 3.0 59 59
r 0.222896 1 4 cbr 210 ------- 0 0.0 3.0 56 56
+ 0.222896 4 3 cbr 210 ------- 0 0.0 3.0 56 56
- 0.222896 4 3 cbr 210 ------- 0 0.0 3.0 56 56
r 0.223586 0 1 cbr 210 ------- 0 0.0 3.0 59 59
+ 0.223586 1 4 cbr 210 ------- 0 0.0 3.0 59 59
- 0.223586 1 4 cbr 210 ------- 0 0.0 3.0 59 59
r 0.224913 4 3 cbr 210 ------- 0 0.0 3.0 56 56
+ 0.225 0 1 cbr 210 ------- 0 0.0 3.0 60 60
- 0.225 0 1 cbr 210 ------- 0 0.0 3.0 60 60
r 0.226646 1 4 cbr 210 ------- 0 0.0 3.0 57 57
+ 0.226646 4 3 cbr 210 ------- 0 0.0 3.0 57 57
- 0.226646 4 3 cbr 210 ------- 0 0.0 3.0 57 57
r 0.227336 0 1 cbr 210 ------- 0 0.0 3.0 60 60
+ 0.227336 1 4 cbr 210 ------- 0 0.0 3.0 60 60
- 0.227336 1 4 cbr 210 ------- 0 0.0 3.0 60 60
r 0.228663 4 3 cbr 210 ------- 0 0.0 3.0 57 57
+ 0.22875 0 1 cbr 210 ------- 0 0.0 3.0 61 61
- 0.22875 0 1 cbr 210 ------- 0 0.0 3.0 61 61
r 0.230396 1 4 cbr 210 ------- 0 0.0 3.0 58 58
+ 0.230396 4 3 cbr 210 ------- 0 0.0 3.0 58 58
- 0.230396 4 3 cbr 210 ------- 0 0.0 3.0 58 58
r 0.231086 0 1 cbr 210 ------- 0 0.0 3.0 61 61
+ 0.231086 1 4 cbr 210 ------- 0 0.0 3.0 61 61
- 0.231086 1 4 cbr 210 ------- 0 0.0 3.0 61 61
r 0.232413 4 3 cbr 210 ------- 0 0.0 3.0 58 58
+ 0.2325 0 1 cbr 210 ------- 0 0.0 3.0 62 62
- 0.2325 0 1 cbr 210 ------- 0 0.0 3.0 62 62
r 0.234146 1 4 cbr 210 ------- 0 0.0 3.0 59 59
+ 0.234146 4 3 cbr 210 ------- 0 0.0 3.0 59 59
- 0.234146 4 3 cbr 210 ------- 0 0.0 3.0 59 59
r 0.234836 0 1 cbr 210 ------- 0 0.0 3.0 62 62
+ 0.234836 1 4 cbr 210 ------- 0 0.0 3.0 62 62
- 0.234836 1 4 cbr 210 ------- 0 0.0 3.0 62 62
r 0.236163 4 3 cbr 210 ------- 0 0.0 3.0 59 59
+ 0.23625 0 1 cbr 210 ------- 0 0.0 3.0 63 63
- 0.23625 0 1 cbr 210 ------- 0 0.0 3.0 63 63
r 0.237896 1 4 cbr 210 ------- 0 0.0 3.0 60 60
+ 0.237896 4 3 cbr 210 ------- 0 0.0 3.0 60 60
- 0.237896 4 3 cbr 210 ------- 0 0.0 3.0 60 60
r 0.238586 0 1 cbr 210 ------- 0 0.0 3.0 63 63
+ 0.238586 1 4 cbr 210 ------- 0 0.0 3.0 63 63
- 0.238586 1 4 cbr 210 ------- 0 0.0 3.0 63 63
r 0.239913 4 3 cbr 210 ------- 0 0.0 3.0 60 60
+ 0.24 0 1 cbr 210 ------- 0 0.0 3.0 64 64
- 0.24 0 1 cbr 210 ------- 0 0.0 3.0 64 64
r 0.241646 1 4 cbr 210 ------- 0 0.0 3.0 61 61
+ 0.241646 4 3 cbr 210 ------- 0 0.0 3.0 61 61
- 0.241646 4 3 cbr 210 ------- 0 0.0 3.0 61 61
r 0.242336 0 1 cbr 210 ------- 0 0.0 3.0 64 64
+ 0.242336 1 4 cbr 210 ------- 0 0.0 3.0 64 64
- 0.242336 1 4 cbr 210 ------- 0 0.0 3.0 64 64
r 0.243663 4 3 cbr 210 ------- 0 0.0 3.0 61 61
+ 0.24375 0 1 cbr 210 ------- 0 0.0 3.0 65 65
- 0.24375 0 1 cbr 210 ------- 0 0.0 3.0 65 65
r 0.245396 1 4 cbr 210 ------- 0 0.0 3.0 62 62
+ 0.245396 4 3 cbr 210 ------- 0 0.0 3.0 62 62
- 0.245396 4 3 cbr 210 ------- 0 0.0 3.0 62 62
r 0.246086 0 1 cbr 210 ------- 0 0.0 3.0 65 65
+ 0.246086 1 4 cbr 210 ------- 0 0.0 3.0 65 65
- 0.246086 1 4 cbr 210 ------- 0 0.0 3.0 65 65
r 0.247413 4 3 cbr 210 ------- 0 0.0 3.0 62 62
+ 0.2475 0 1 cbr 210 ------- 0 0.0 3.0 66 66
- 0.2475 0 1 cbr 210 ------- 0 0.0 3.0 66 66
r 0.249146 1 4 cbr 210 ------- 0 0.0 3.0 63 63
+ 0.249146 4 3 cbr 210 ------- 0 0.0 3.0 63 63
- 0.249146 4 3 cbr 210 ------- 0 0.0 3.0 63 63
r 0.249836 0 1 cbr 210 ------- 0 0.0 3.0 66 66
+ 0.249836 1 4 cbr 210 ------- 0 0.0 3.0 66 66
- 0.249836 1 4 cbr 210 ------- 0 0.0 3.0 66 66
r 0.251163 4 3 cbr 210 ------- 0 0.0 3.0 63 63
+ 0.25125 0 1 cbr 210 ------- 0 0.0 3.0 67 67
- 0.25125 0 1 cbr 210 ------- 0 0.0 3.0 67 67
r 0.252896 1 4 cbr 210 ------- 0 0.0 3.0 64 64
+ 0.252896 4 3 cbr 210 ------- 0 0.0 3.0 64 64
- 0.252896 4 3 cbr 210 ------- 0 0.0 3.0 64 64
r 0.253586 0 1 cbr 210 ------- 0 0.0 3.0 67 67
+ 0.253586 1 4 cbr 210 ------- 0 0.0 3.0 67 67
- 0.253586 1 4 cbr 210 ------- 0 0.0 3.0 67 67
r 0.254913 4 3 cbr 210 ------- 0 0.0 3.0 64 64
+ 0.255 0 1 cbr 210 ------- 0 0.0 3.0 68 68
- 0.255 0 1 cbr 210 ------- 0 0.0 3.0 68 68
r 0.256646 1 4 cbr 210 ------- 0 0.0 3.0 65 65
+ 0.256646 4 3 cbr 210 ------- 0 0.0 3.0 65 65
- 0.256646 4 3 cbr 210 ------- 0 0.0 3.0 65 65
r 0.257336 0 1 cbr 210 ------- 0 0.0 3.0 68 68
+ 0.257336 1 4 cbr 210 ------- 0 0.0 3.0 68 68
- 0.257336 1 4 cbr 210 ------- 0 0.0 3.0 68 68
r 0.258663 4 3 cbr 210 ------- 0 0.0 3.0 65 65
+ 0.25875 0 1 cbr 210 ------- 0 0.0 3.0 69 69
- 0.25875 0 1 cbr 210 ------- 0 0.0 3.0 69 69
r 0.260396 1 4 cbr 210 ------- 0 0.0 3.0 66 66
+ 0.260396 4 3 cbr 210 ------- 0 0.0 3.0 66 66
- 0.260396 4 3 cbr 210 ------- 0 0.0 3.0 66 66
r 0.261086 0 1 cbr 210 ------- 0 0.0 3.0 69 69
+ 0.261086 1 4 cbr 210 ------- 0 0.0 3.0 69 69
- 0.261086 1 4 cbr 210 ------- 0 0.0 3.0 69 69
r 0.262413 4 3 cbr 210 ------- 0 0.0 3.0 66 66
+ 0.2625 0 1 cbr 210 ------- 0 0.0 3.0 70 70
- 0.2625 0 1 cbr 210 ------- 0 0.0 3.0 70 70
r 0.264146 1 4 cbr 210 ------- 0 0.0 3.0 67 67
+ 0.264146 4 3 cbr 210 ------- 0 0.0 3.0 67 67
- 0.264146 4 3 cbr 210 ------- 0 0.0 3.0 67 67
r 0.264836 0 1 cbr 210 ------- 0 0.0 3.0 70 70
+ 0.264836 1 4 cbr 210 ------- 0 0.0 3.0 70 70
- 0.264836 1 4 cbr 210 ------- 0 0.0 3.0 70 70
r 0.266163 4 3 cbr 210 ------- 0 0.0 3.0 67 67
+ 0.26625 0 1 cbr 210 ------- 0 0.0 3.0 71 71
- 0.26625 0 1 cbr 210 ------- 0 0.0 3.0 71 71
r 0.267896 1 4 cbr 210 ------- 0 0.0 3.0 68 68
+ 0.267896 4 3 cbr 210 ------- 0 0.0 3.0 68 68
- 0.267896 4 3 cbr 210 ------- 0 0.0 3.0 68 68
r 0.268586 0 1 cbr 210 ------- 0 0.0 3.0 71 71
+ 0.268586 1 4 cbr 210 ------- 0 0.0 3.0 71 71
- 0.268586 1 4 cbr 210 ------- 0 0.0 3.0 71 71
r 0.269913 4 3 cbr 210 ------- 0 0.0 3.0 68 68
+ 0.27 0 1 cbr 210 ------- 0 0.0 3.0 72 72
- 0.27 0 1 cbr 210 ------- 0 0.0 3.0 72 72
r 0.271646 1 4 cbr 210 ------- 0 0.0 3.0 69 69
+ 0.271646 4 3 cbr 210 ------- 0 0.0 3.0 69 69
- 0.271646 4 3 cbr 210 ------- 0 0.0 3.0 69 69
r 0.272336 0 1 cbr 210 ------- 0 0.0 3.0 72 72
+ 0.272336 1 4 cbr 210 ------- 0 0.0 3.0 72 72
- 0.272336 1 4 cbr 210 ------- 0 0.0 3.0 72 72
r 0.273663 4 3 cbr 210 ------- 0 0.0 3.0 69 69
+ 0.27375 0 1 cbr 210 ------- 0 0.0 3.0 73 73
- 0.27375 0 1 cbr 210 ------- 0 0.0 3.0 73 73
r 0.275396 1 4 cbr 210 ------- 0 0.0 3.0 70 70